+ 0 0 1 tcp 40 ------- 1 0.0 3.0 0 0
- 0 0 1 tcp 40 ------- 1 0.0 3.0 0 0
r 0.001032 0 1 tcp 40 ------- 1 0.0 3.0 0 0
+ 0.001032 1 2 tcp 40 ------- 1 0.0 3.0 0 0
- 0.001032 1 2 tcp 40 ------- 1 0.0 3.0 0 0
r 0.006352 1 2 tcp 40 ------- 1 0.0 3.0 0 0
+ 0.006352 2 3 tcp 40 ------- 1 0.0 3.0 0 0
- 0.006352 2 3 tcp 40 ------- 1 0.0 3.0 0 0
r 0.007384 2 3 tcp 40 ------- 1 0.0 3.0 0 0
+ 0.007384 3 2 ack 40 ------- 1 3.0 0.0 0 1
- 0.007384 3 2 ack 40 ------- 1 3.0 0.0 0 1
r 0.008416 3 2 ack 40 ------- 1 3.0 0.0 0 1
+ 0.008416 2 1 ack 40 ------- 1 3.0 0.0 0 1
- 0.008416 2 1 ack 40 ------- 1 3.0 0.0 0 1
r 0.013736 2 1 ack 40 ------- 1 3.0 0.0 0 1
+ 0.013736 1 0 ack 40 ------- 1 3.0 0.0 0 1
- 0.013736 1 0 ack 40 ------- 1 3.0 0.0 0 1
r 0.014768 1 0 ack 40 ------- 1 3.0 0.0 0 1
+ 0.014768 0 1 tcp 1040 ------- 1 0.0 3.0 1 2
- 0.014768 0 1 tcp 1040 ------- 1 0.0 3.0 1 2
+ 0.014768 0 1 tcp 1040 ------- 1 0.0 3.0 2 3
- 0.0156 0 1 tcp 1040 ------- 1 0.0 3.0 2 3
r 0.0166 0 1 tcp 1040 ------- 1 0.0 3.0 1 2
+ 0.0166 1 2 tcp 1040 ------- 1 0.0 3.0 1 2
- 0.0166 1 2 tcp 1040 ------- 1 0.0 3.0 1 2
r 0.017432 0 1 tcp 1040 ------- 1 0.0 3.0 2 3
+ 0.017432 1 2 tcp 1040 ------- 1 0.0 3.0 2 3
- 0.02492 1 2 tcp 1040 ------- 1 0.0 3.0 2 3
r 0.02992 1 2 tcp 1040 ------- 1 0.0 3.0 1 2
+ 0.02992 2 3 tcp 1040 ------- 1 0.0 3.0 1 2
- 0.02992 2 3 tcp 1040 ------- 1 0.0 3.0 1 2
r 0.031752 2 3 tcp 1040 ------- 1 0.0 3.0 1 2
+ 0.031752 3 2 ack 40 ------- 1 3.0 0.0 1 4
- 0.031752 3 2 ack 40 ------- 1 3.0 0.0 1 4
r 0.032784 3 2 ack 40 ------- 1 3.0 0.0 1 4
+ 0.032784 2 1 ack 40 ------- 1 3.0 0.0 1 4
- 0.032784 2 1 ack 40 ------- 1 3.0 0.0 1 4
r 0.038104 2 1 ack 40 ------- 1 3.0 0.0 1 4
+ 0.038104 1 0 ack 40 ------- 1 3.0 0.0 1 4
- 0.038104 1 0 ack 40 ------- 1 3.0 0.0 1 4
r 0.03824 1 2 tcp 1040 ------- 1 0.0 3.0 2 3
+ 0.03824 2 3 tcp 1040 ------- 1 0.0 3.0 2 3
- 0.03824 2 3 tcp 1040 ------- 1 0.0 3.0 2 3
r 0.039136 1 0 ack 40 ------- 1 3.0 0.0 1 4
+ 0.039136 0 1 tcp 1040 ------- 1 0.0 3.0 3 5
- 0.039136 0 1 tcp 1040 ------- 1 0.0 3.0 3 5
+ 0.039136 0 1 tcp 1040 ------- 1 0.0 3.0 4 6
- 0.039968 0 1 tcp 1040 ------- 1 0.0 3.0 4 6
r 0.040072 2 3 tcp 1040 ------- 1 0.0 3.0 2 3
+ 0.040072 3 2 ack 40 ------- 1 3.0 0.0 2 7
- 0.040072 3 2 ack 40 ------- 1 3.0 0.0 2 7
r 0.040968 0 1 tcp 1040 ------- 1 0.0 3.0 3 5
+ 0.040968 1 2 tcp 1040 ------- 1 0.0 3.0 3 5
- 0.040968 1 2 tcp 1040 ------- 1 0.0 3.0 3 5
r 0.041104 3 2 ack 40 ------- 1 3.0 0.0 2 7
+ 0.041104 2 1 ack 40 ------- 1 3.0 0.0 2 7
- 0.041104 2 1 ack 40 ------- 1 3.0 0.0 2 7
r 0.0418 0 1 tcp 1040 ------- 1 0.0 3.0 4 6
+ 0.0418 1 2 tcp 1040 ------- 1 0.0 3.0 4 6
r 0.046424 2 1 ack 40 ------- 1 3.0 0.0 2 7
+ 0.046424 1 0 ack 40 ------- 1 3.0 0.0 2 7
- 0.046424 1 0 ack 40 ------- 1 3.0 0.0 2 7
r 0.047456 1 0 ack 40 ------- 1 3.0 0.0 2 7
+ 0.047456 0 1 tcp 1040 ------- 1 0.0 3.0 5 8
- 0.047456 0 1 tcp 1040 ------- 1 0.0 3.0 5 8
+ 0.047456 0 1 tcp 1040 ------- 1 0.0 3.0 6 9
- 0.048288 0 1 tcp 1040 ------- 1 0.0 3.0 6 9
- 0.049288 1 2 tcp 1040 ------- 1 0.0 3.0 4 6
r 0.049288 0 1 tcp 1040 ------- 1 0.0 3.0 5 8
+ 0.049288 1 2 tcp 1040 ------- 1 0.0 3.0 5 8
r 0.05012 0 1 tcp 1040 ------- 1 0.0 3.0 6 9
+ 0.05012 1 2 tcp 1040 ------- 1 0.0 3.0 6 9
r 0.054288 1 2 tcp 1040 ------- 1 0.0 3.0 3 5
+ 0.054288 2 3 tcp 1040 ------- 1 0.0 3.0 3 5
- 0.054288 2 3 tcp 1040 ------- 1 0.0 3.0 3 5
r 0.05612 2 3 tcp 1040 ------- 1 0.0 3.0 3 5
+ 0.05612 3 2 ack 40 ------- 1 3.0 0.0 3 10
- 0.05612 3 2 ack 40 ------- 1 3.0 0.0 3 10
r 0.057152 3 2 ack 40 ------- 1 3.0 0.0 3 10
+ 0.057152 2 1 ack 40 ------- 1 3.0 0.0 3 10
- 0.057152 2 1 ack 40 ------- 1 3.0 0.0 3 10
- 0.057608 1 2 tcp 1040 ------- 1 0.0 3.0 5 8
r 0.062472 2 1 ack 40 ------- 1 3.0 0.0 3 10
+ 0.062472 1 0 ack 40 ------- 1 3.0 0.0 3 10
- 0.062472 1 0 ack 40 ------- 1 3.0 0.0 3 10
r 0.062608 1 2 tcp 1040 ------- 1 0.0 3.0 4 6
+ 0.062608 2 3 tcp 1040 ------- 1 0.0 3.0 4 6
- 0.062608 2 3 tcp 1040 ------- 1 0.0 3.0 4 6
r 0.063504 1 0 ack 40 ------- 1 3.0 0.0 3 10
+ 0.063504 0 1 tcp 1040 ------- 1 0.0 3.0 7 11
- 0.063504 0 1 tcp 1040 ------- 1 0.0 3.0 7 11
+ 0.063504 0 1 tcp 1040 ------- 1 0.0 3.0 8 12
- 0.064336 0 1 tcp 1040 ------- 1 0.0 3.0 8 12
r 0.06444 2 3 tcp 1040 ------- 1 0.0 3.0 4 6
+ 0.06444 3 2 ack 40 ------- 1 3.0 0.0 4 13
- 0.06444 3 2 ack 40 ------- 1 3.0 0.0 4 13
r 0.065336 0 1 tcp 1040 ------- 1 0.0 3.0 7 11
+ 0.065336 1 2 tcp 1040 ------- 1 0.0 3.0 7 11
r 0.065472 3 2 ack 40 ------- 1 3.0 0.0 4 13
+ 0.065472 2 1 ack 40 ------- 1 3.0 0.0 4 13
- 0.065472 2 1 ack 40 ------- 1 3.0 0.0 4 13
- 0.065928 1 2 tcp 1040 ------- 1 0.0 3.0 6 9
r 0.066168 0 1 tcp 1040 ------- 1 0.0 3.0 8 12
+ 0.066168 1 2 tcp 1040 ------- 1 0.0 3.0 8 12
r 0.070792 2 1 ack 40 ------- 1 3.0 0.0 4 13
+ 0.070792 1 0 ack 40 ------- 1 3.0 0.0 4 13
- 0.070792 1 0 ack 40 ------- 1 3.0 0.0 4 13
r 0.070928 1 2 tcp 1040 ------- 1 0.0 3.0 5 8
+ 0.070928 2 3 tcp 1040 ------- 1 0.0 3.0 5 8
- 0.070928 2 3 tcp 1040 ------- 1 0.0 3.0 5 8
r 0.071824 1 0 ack 40 ------- 1 3.0 0.0 4 13
+ 0.071824 0 1 tcp 1040 ------- 1 0.0 3.0 9 14
- 0.071824 0 1 tcp 1040 ------- 1 0.0 3.0 9 14
+ 0.071824 0 1 tcp 1040 ------- 1 0.0 3.0 10 15
- 0.072656 0 1 tcp 1040 ------- 1 0.0 3.0 10 15
r 0.07276 2 3 tcp 1040 ------- 1 0.0 3.0 5 8
+ 0.07276 3 2 ack 40 ------- 1 3.0 0.0 5 16
- 0.07276 3 2 ack 40 ------- 1 3.0 0.0 5 16
r 0.073656 0 1 tcp 1040 ------- 1 0.0 3.0 9 14
+ 0.073656 1 2 tcp 1040 ------- 1 0.0 3.0 9 14
r 0.073792 3 2 ack 40 ------- 1 3.0 0.0 5 16
+ 0.073792 2 1 ack 40 ------- 1 3.0 0.0 5 16
- 0.073792 2 1 ack 40 ------- 1 3.0 0.0 5 16
- 0.074248 1 2 tcp 1040 ------- 1 0.0 3.0 7 11
r 0.074488 0 1 tcp 1040 ------- 1 0.0 3.0 10 15
+ 0.074488 1 2 tcp 1040 ------- 1 0.0 3.0 10 15
r 0.079112 2 1 ack 40 ------- 1 3.0 0.0 5 16
+ 0.079112 1 0 ack 40 ------- 1 3.0 0.0 5 16
- 0.079112 1 0 ack 40 ------- 1 3.0 0.0 5 16
r 0.079248 1 2 tcp 1040 ------- 1 0.0 3.0 6 9
+ 0.079248 2 3 tcp 1040 ------- 1 0.0 3.0 6 9
- 0.079248 2 3 tcp 1040 ------- 1 0.0 3.0 6 9
r 0.080144 1 0 ack 40 ------- 1 3.0 0.0 5 16
+ 0.080144 0 1 tcp 1040 ------- 1 0.0 3.0 11 17
- 0.080144 0 1 tcp 1040 ------- 1 0.0 3.0 11 17
+ 0.080144 0 1 tcp 1040 ------- 1 0.0 3.0 12 18
- 0.080976 0 1 tcp 1040 ------- 1 0.0 3.0 12 18
r 0.08108 2 3 tcp 1040 ------- 1 0.0 3.0 6 9
+ 0.08108 3 2 ack 40 ------- 1 3.0 0.0 6 19
- 0.08108 3 2 ack 40 ------- 1 3.0 0.0 6 19
r 0.081976 0 1 tcp 1040 ------- 1 0.0 3.0 11 17
+ 0.081976 1 2 tcp 1040 ------- 1 0.0 3.0 11 17
r 0.082112 3 2 ack 40 ------- 1 3.0 0.0 6 19
+ 0.082112 2 1 ack 40 ------- 1 3.0 0.0 6 19
- 0.082112 2 1 ack 40 ------- 1 3.0 0.0 6 19
- 0.082568 1 2 tcp 1040 ------- 1 0.0 3.0 8 12
r 0.082808 0 1 tcp 1040 ------- 1 0.0 3.0 12 18
+ 0.082808 1 2 tcp 1040 ------- 1 0.0 3.0 12 18
r 0.087432 2 1 ack 40 ------- 1 3.0 0.0 6 19
+ 0.087432 1 0 ack 40 ------- 1 3.0 0.0 6 19
- 0.087432 1 0 ack 40 ------- 1 3.0 0.0 6 19
r 0.087568 1 2 tcp 1040 ------- 1 0.0 3.0 7 11
+ 0.087568 2 3 tcp 1040 ------- 1 0.0 3.0 7 11
- 0.087568 2 3 tcp 1040 ------- 1 0.0 3.0 7 11
r 0.088464 1 0 ack 40 ------- 1 3.0 0.0 6 19
+ 0.088464 0 1 tcp 1040 ------- 1 0.0 3.0 13 20
- 0.088464 0 1 tcp 1040 ------- 1 0.0 3.0 13 20
+ 0.088464 0 1 tcp 1040 ------- 1 0.0 3.0 14 21
- 0.089296 0 1 tcp 1040 ------- 1 0.0 3.0 14 21
r 0.0894 2 3 tcp 1040 ------- 1 0.0 3.0 7 11
+ 0.0894 3 2 ack 40 ------- 1 3.0 0.0 7 22
- 0.0894 3 2 ack 40 ------- 1 3.0 0.0 7 22
r 0.090296 0 1 tcp 1040 ------- 1 0.0 3.0 13 20
+ 0.090296 1 2 tcp 1040 ------- 1 0.0 3.0 13 20
r 0.090432 3 2 ack 40 ------- 1 3.0 0.0 7 22
+ 0.090432 2 1 ack 40 ------- 1 3.0 0.0 7 22
- 0.090432 2 1 ack 40 ------- 1 3.0 0.0 7 22
- 0.090888 1 2 tcp 1040 ------- 1 0.0 3.0 9 14
r 0.091128 0 1 tcp 1040 ------- 1 0.0 3.0 14 21
+ 0.091128 1 2 tcp 1040 ------- 1 0.0 3.0 14 21
r 0.095752 2 1 ack 40 ------- 1 3.0 0.0 7 22
+ 0.095752 1 0 ack 40 ------- 1 3.0 0.0 7 22
- 0.095752 1 0 ack 40 ------- 1 3.0 0.0 7 22
r 0.095888 1 2 tcp 1040 ------- 1 0.0 3.0 8 12
+ 0.095888 2 3 tcp 1040 ------- 1 0.0 3.0 8 12
- 0.095888 2 3 tcp 1040 ------- 1 0.0 3.0 8 12
r 0.096784 1 0 ack 40 ------- 1 3.0 0.0 7 22
+ 0.096784 0 1 tcp 1040 ------- 1 0.0 3.0 15 23
- 0.096784 0 1 tcp 1040 ------- 1 0.0 3.0 15 23
+ 0.096784 0 1 tcp 1040 ------- 1 0.0 3.0 16 24
- 0.097616 0 1 tcp 1040 ------- 1 0.0 3.0 16 24
r 0.09772 2 3 tcp 1040 ------- 1 0.0 3.0 8 12
+ 0.09772 3 2 ack 40 ------- 1 3.0 0.0 8 25
- 0.09772 3 2 ack 40 ------- 1 3.0 0.0 8 25
r 0.098616 0 1 tcp 1040 ------- 1 0.0 3.0 15 23
+ 0.098616 1 2 tcp 1040 ------- 1 0.0 3.0 15 23
r 0.098752 3 2 ack 40 ------- 1 3.0 0.0 8 25
+ 0.098752 2 1 ack 40 ------- 1 3.0 0.0 8 25
- 0.098752 2 1 ack 40 ------- 1 3.0 0.0 8 25
- 0.099208 1 2 tcp 1040 ------- 1 0.0 3.0 10 15
r 0.099448 0 1 tcp 1040 ------- 1 0.0 3.0 16 24
+ 0.099448 1 2 tcp 1040 ------- 1 0.0 3.0 16 24
r 0.104072 2 1 ack 40 ------- 1 3.0 0.0 8 25
+ 0.104072 1 0 ack 40 ------- 1 3.0 0.0 8 25
- 0.104072 1 0 ack 40 ------- 1 3.0 0.0 8 25
r 0.104208 1 2 tcp 1040 ------- 1 0.0 3.0 9 14
+ 0.104208 2 3 tcp 1040 ------- 1 0.0 3.0 9 14
- 0.104208 2 3 tcp 1040 ------- 1 0.0 3.0 9 14
r 0.105104 1 0 ack 40 ------- 1 3.0 0.0 8 25
+ 0.105104 0 1 tcp 1040 ------- 1 0.0 3.0 17 26
- 0.105104 0 1 tcp 1040 ------- 1 0.0 3.0 17 26
+ 0.105104 0 1 tcp 1040 ------- 1 0.0 3.0 18 27
- 0.105936 0 1 tcp 1040 ------- 1 0.0 3.0 18 27
r 0.10604 2 3 tcp 1040 ------- 1 0.0 3.0 9 14
+ 0.10604 3 2 ack 40 ------- 1 3.0 0.0 9 28
- 0.10604 3 2 ack 40 ------- 1 3.0 0.0 9 28
r 0.106936 0 1 tcp 1040 ------- 1 0.0 3.0 17 26
+ 0.106936 1 2 tcp 1040 ------- 1 0.0 3.0 17 26
r 0.107072 3 2 ack 40 ------- 1 3.0 0.0 9 28
+ 0.107072 2 1 ack 40 ------- 1 3.0 0.0 9 28
- 0.107072 2 1 ack 40 ------- 1 3.0 0.0 9 28
- 0.107528 1 2 tcp 1040 ------- 1 0.0 3.0 11 17
r 0.107768 0 1 tcp 1040 ------- 1 0.0 3.0 18 27
+ 0.107768 1 2 tcp 1040 ------- 1 0.0 3.0 18 27
r 0.112392 2 1 ack 40 ------- 1 3.0 0.0 9 28
+ 0.112392 1 0 ack 40 ------- 1 3.0 0.0 9 28
- 0.112392 1 0 ack 40 ------- 1 3.0 0.0 9 28
r 0.112528 1 2 tcp 1040 ------- 1 0.0 3.0 10 15
+ 0.112528 2 3 tcp 1040 ------- 1 0.0 3.0 10 15
- 0.112528 2 3 tcp 1040 ------- 1 0.0 3.0 10 15
r 0.113424 1 0 ack 40 ------- 1 3.0 0.0 9 28
+ 0.113424 0 1 tcp 1040 ------- 1 0.0 3.0 19 29
- 0.113424 0 1 tcp 1040 ------- 1 0.0 3.0 19 29
+ 0.113424 0 1 tcp 1040 ------- 1 0.0 3.0 20 30
- 0.114256 0 1 tcp 1040 ------- 1 0.0 3.0 20 30
r 0.11436 2 3 tcp 1040 ------- 1 0.0 3.0 10 15
+ 0.11436 3 2 ack 40 ------- 1 3.0 0.0 10 31
- 0.11436 3 2 ack 40 ------- 1 3.0 0.0 10 31
r 0.115256 0 1 tcp 1040 ------- 1 0.0 3.0 19 29
+ 0.115256 1 2 tcp 1040 ------- 1 0.0 3.0 19 29
r 0.115392 3 2 ack 40 ------- 1 3.0 0.0 10 31
+ 0.115392 2 1 ack 40 ------- 1 3.0 0.0 10 31
- 0.115392 2 1 ack 40 ------- 1 3.0 0.0 10 31
- 0.115848 1 2 tcp 1040 ------- 1 0.0 3.0 12 18
r 0.116088 0 1 tcp 1040 ------- 1 0.0 3.0 20 30
+ 0.116088 1 2 tcp 1040 ------- 1 0.0 3.0 20 30
r 0.120712 2 1 ack 40 ------- 1 3.0 0.0 10 31
+ 0.120712 1 0 ack 40 ------- 1 3.0 0.0 10 31
- 0.120712 1 0 ack 40 ------- 1 3.0 0.0 10 31
r 0.120848 1 2 tcp 1040 ------- 1 0.0 3.0 11 17
+ 0.120848 2 3 tcp 1040 ------- 1 0.0 3.0 11 17
- 0.120848 2 3 tcp 1040 ------- 1 0.0 3.0 11 17
r 0.121744 1 0 ack 40 ------- 1 3.0 0.0 10 31
+ 0.121744 0 1 tcp 1040 ------- 1 0.0 3.0 21 32
- 0.121744 0 1 tcp 1040 ------- 1 0.0 3.0 21 32
+ 0.121744 0 1 tcp 1040 ------- 1 0.0 3.0 22 33
- 0.122576 0 1 tcp 1040 ------- 1 0.0 3.0 22 33
r 0.12268 2 3 tcp 1040 ------- 1 0.0 3.0 11 17
+ 0.12268 3 2 ack 40 ------- 1 3.0 0.0 11 34
- 0.12268 3 2 ack 40 ------- 1 3.0 0.0 11 34
r 0.123576 0 1 tcp 1040 ------- 1 0.0 3.0 21 32
+ 0.123576 1 2 tcp 1040 ------- 1 0.0 3.0 21 32
r 0.123712 3 2 ack 40 ------- 1 3.0 0.0 11 34
+ 0.123712 2 1 ack 40 ------- 1 3.0 0.0 11 34
- 0.123712 2 1 ack 40 ------- 1 3.0 0.0 11 34
- 0.124168 1 2 tcp 1040 ------- 1 0.0 3.0 13 20
r 0.124408 0 1 tcp 1040 ------- 1 0.0 3.0 22 33
+ 0.124408 1 2 tcp 1040 ------- 1 0.0 3.0 22 33
r 0.129032 2 1 ack 40 ------- 1 3.0 0.0 11 34
+ 0.129032 1 0 ack 40 ------- 1 3.0 0.0 11 34
- 0.129032 1 0 ack 40 ------- 1 3.0 0.0 11 34
r 0.129168 1 2 tcp 1040 ------- 1 0.0 3.0 12 18
+ 0.129168 2 3 tcp 1040 ------- 1 0.0 3.0 12 18
- 0.129168 2 3 tcp 1040 ------- 1 0.0 3.0 12 18
r 0.130064 1 0 ack 40 ------- 1 3.0 0.0 11 34
+ 0.130064 0 1 tcp 1040 ------- 1 0.0 3.0 23 35
- 0.130064 0 1 tcp 1040 ------- 1 0.0 3.0 23 35
+ 0.130064 0 1 tcp 1040 ------- 1 0.0 3.0 24 36
- 0.130896 0 1 tcp 1040 ------- 1 0.0 3.0 24 36
r 0.131 2 3 tcp 1040 ------- 1 0.0 3.0 12 18
+ 0.131 3 2 ack 40 ------- 1 3.0 0.0 12 37
- 0.131 3 2 ack 40 ------- 1 3.0 0.0 12 37
r 0.131896 0 1 tcp 1040 ------- 1 0.0 3.0 23 35
+ 0.131896 1 2 tcp 1040 ------- 1 0.0 3.0 23 35
r 0.132032 3 2 ack 40 ------- 1 3.0 0.0 12 37
+ 0.132032 2 1 ack 40 ------- 1 3.0 0.0 12 37
- 0.132032 2 1 ack 40 ------- 1 3.0 0.0 12 37
- 0.132488 1 2 tcp 1040 ------- 1 0.0 3.0 14 21
r 0.132728 0 1 tcp 1040 ------- 1 0.0 3.0 24 36
+ 0.132728 1 2 tcp 1040 ------- 1 0.0 3.0 24 36
r 0.137352 2 1 ack 40 ------- 1 3.0 0.0 12 37
+ 0.137352 1 0 ack 40 ------- 1 3.0 0.0 12 37
- 0.137352 1 0 ack 40 ------- 1 3.0 0.0 12 37
r 0.137488 1 2 tcp 1040 ------- 1 0.0 3.0 13 20
+ 0.137488 2 3 tcp 1040 ------- 1 0.0 3.0 13 20
- 0.137488 2 3 tcp 1040 ------- 1 0.0 3.0 13 20
r 0.138384 1 0 ack 40 ------- 1 3.0 0.0 12 37
+ 0.138384 0 1 tcp 1040 ------- 1 0.0 3.0 25 38
- 0.138384 0 1 tcp 1040 ------- 1 0.0 3.0 25 38
+ 0.138384 0 1 tcp 1040 ------- 1 0.0 3.0 26 39
- 0.139216 0 1 tcp 1040 ------- 1 0.0 3.0 26 39
r 0.13932 2 3 tcp 1040 ------- 1 0.0 3.0 13 20
+ 0.13932 3 2 ack 40 ------- 1 3.0 0.0 13 40
- 0.13932 3 2 ack 40 ------- 1 3.0 0.0 13 40
r 0.140216 0 1 tcp 1040 ------- 1 0.0 3.0 25 38
+ 0.140216 1 2 tcp 1040 ------- 1 0.0 3.0 25 38
d 0.140216 1 2 tcp 1040 ------- 1 0.0 3.0 25 38
r 0.140352 3 2 ack 40 ------- 1 3.0 0.0 13 40
+ 0.140352 2 1 ack 40 ------- 1 3.0 0.0 13 40
- 0.140352 2 1 ack 40 ------- 1 3.0 0.0 13 40
- 0.140808 1 2 tcp 1040 ------- 1 0.0 3.0 15 23
r 0.141048 0 1 tcp 1040 ------- 1 0.0 3.0 26 39
+ 0.141048 1 2 tcp 1040 ------- 1 0.0 3.0 26 39
r 0.145672 2 1 ack 40 ------- 1 3.0 0.0 13 40
+ 0.145672 1 0 ack 40 ------- 1 3.0 0.0 13 40
- 0.145672 1 0 ack 40 ------- 1 3.0 0.0 13 40
r 0.145808 1 2 tcp 1040 ------- 1 0.0 3.0 14 21
+ 0.145808 2 3 tcp 1040 ------- 1 0.0 3.0 14 21
- 0.145808 2 3 tcp 1040 ------- 1 0.0 3.0 14 21
r 0.146704 1 0 ack 40 ------- 1 3.0 0.0 13 40
+ 0.146704 0 1 tcp 1040 ------- 1 0.0 3.0 27 41
- 0.146704 0 1 tcp 1040 ------- 1 0.0 3.0 27 41
+ 0.146704 0 1 tcp 1040 ------- 1 0.0 3.0 28 42
- 0.147536 0 1 tcp 1040 ------- 1 0.0 3.0 28 42
r 0.14764 2 3 tcp 1040 ------- 1 0.0 3.0 14 21
+ 0.14764 3 2 ack 40 ------- 1 3.0 0.0 14 43
- 0.14764 3 2 ack 40 ------- 1 3.0 0.0 14 43
r 0.148536 0 1 tcp 1040 ------- 1 0.0 3.0 27 41
+ 0.148536 1 2 tcp 1040 ------- 1 0.0 3.0 27 41
d 0.148536 1 2 tcp 1040 ------- 1 0.0 3.0 27 41
r 0.148672 3 2 ack 40 ------- 1 3.0 0.0 14 43
+ 0.148672 2 1 ack 40 ------- 1 3.0 0.0 14 43
- 0.148672 2 1 ack 40 ------- 1 3.0 0.0 14 43
- 0.149128 1 2 tcp 1040 ------- 1 0.0 3.0 16 24
r 0.149368 0 1 tcp 1040 ------- 1 0.0 3.0 28 42
+ 0.149368 1 2 tcp 1040 ------- 1 0.0 3.0 28 42
r 0.153992 2 1 ack 40 ------- 1 3.0 0.0 14 43
+ 0.153992 1 0 ack 40 ------- 1 3.0 0.0 14 43
- 0.153992 1 0 ack 40 ------- 1 3.0 0.0 14 43
r 0.154128 1 2 tcp 1040 ------- 1 0.0 3.0 15 23
+ 0.154128 2 3 tcp 1040 ------- 1 0.0 3.0 15 23
- 0.154128 2 3 tcp 1040 ------- 1 0.0 3.0 15 23
r 0.155024 1 0 ack 40 ------- 1 3.0 0.0 14 43
+ 0.155024 0 1 tcp 1040 ------- 1 0.0 3.0 29 44
- 0.155024 0 1 tcp 1040 ------- 1 0.0 3.0 29 44
+ 0.155024 0 1 tcp 1040 ------- 1 0.0 3.0 30 45
- 0.155856 0 1 tcp 1040 ------- 1 0.0 3.0 30 45
r 0.15596 2 3 tcp 1040 ------- 1 0.0 3.0 15 23
+ 0.15596 3 2 ack 40 ------- 1 3.0 0.0 15 46
- 0.15596 3 2 ack 40 ------- 1 3.0 0.0 15 46
r 0.156856 0 1 tcp 1040 ------- 1 0.0 3.0 29 44
+ 0.156856 1 2 tcp 1040 ------- 1 0.0 3.0 29 44
d 0.156856 1 2 tcp 1040 ------- 1 0.0 3.0 29 44
r 0.156992 3 2 ack 40 ------- 1 3.0 0.0 15 46
+ 0.156992 2 1 ack 40 ------- 1 3.0 0.0 15 46
- 0.156992 2 1 ack 40 ------- 1 3.0 0.0 15 46
- 0.157448 1 2 tcp 1040 ------- 1 0.0 3.0 17 26
r 0.157688 0 1 tcp 1040 ------- 1 0.0 3.0 30 45
+ 0.157688 1 2 tcp 1040 ------- 1 0.0 3.0 30 45
r 0.162312 2 1 ack 40 ------- 1 3.0 0.0 15 46
+ 0.162312 1 0 ack 40 ------- 1 3.0 0.0 15 46
- 0.162312 1 0 ack 40 ------- 1 3.0 0.0 15 46
r 0.162448 1 2 tcp 1040 ------- 1 0.0 3.0 16 24
+ 0.162448 2 3 tcp 1040 ------- 1 0.0 3.0 16 24
- 0.162448 2 3 tcp 1040 ------- 1 0.0 3.0 16 24
r 0.163344 1 0 ack 40 ------- 1 3.0 0.0 15 46
+ 0.163344 0 1 tcp 1040 ------- 1 0.0 3.0 31 47
- 0.163344 0 1 tcp 1040 ------- 1 0.0 3.0 31 47
+ 0.163344 0 1 tcp 1040 ------- 1 0.0 3.0 32 48
- 0.164176 0 1 tcp 1040 ------- 1 0.0 3.0 32 48
r 0.16428 2 3 tcp 1040 ------- 1 0.0 3.0 16 24
+ 0.16428 3 2 ack 40 ------- 1 3.0 0.0 16 49
- 0.16428 3 2 ack 40 ------- 1 3.0 0.0 16 49
r 0.165176 0 1 tcp 1040 ------- 1 0.0 3.0 31 47
+ 0.165176 1 2 tcp 1040 ------- 1 0.0 3.0 31 47
d 0.165176 1 2 tcp 1040 ------- 1 0.0 3.0 31 47
r 0.165312 3 2 ack 40 ------- 1 3.0 0.0 16 49
+ 0.165312 2 1 ack 40 ------- 1 3.0 0.0 16 49
- 0.165312 2 1 ack 40 ------- 1 3.0 0.0 16 49
- 0.165768 1 2 tcp 1040 ------- 1 0.0 3.0 18 27
r 0.166008 0 1 tcp 1040 ------- 1 0.0 3.0 32 48
+ 0.166008 1 2 tcp 1040 ------- 1 0.0 3.0 32 48
r 0.170632 2 1 ack 40 ------- 1 3.0 0.0 16 49
+ 0.170632 1 0 ack 40 ------- 1 3.0 0.0 16 49
- 0.170632 1 0 ack 40 ------- 1 3.0 0.0 16 49
r 0.170768 1 2 tcp 1040 ------- 1 0.0 3.0 17 26
+ 0.170768 2 3 tcp 1040 ------- 1 0.0 3.0 17 26
- 0.170768 2 3 tcp 1040 ------- 1 0.0 3.0 17 26
r 0.171664 1 0 ack 40 ------- 1 3.0 0.0 16 49
+ 0.171664 0 1 tcp 1040 ------- 1 0.0 3.0 33 50
- 0.171664 0 1 tcp 1040 ------- 1 0.0 3.0 33 50
+ 0.171664 0 1 tcp 1040 ------- 1 0.0 3.0 34 51
- 0.172496 0 1 tcp 1040 ------- 1 0.0 3.0 34 51
r 0.1726 2 3 tcp 1040 ------- 1 0.0 3.0 17 26
+ 0.1726 3 2 ack 40 ------- 1 3.0 0.0 17 52
- 0.1726 3 2 ack 40 ------- 1 3.0 0.0 17 52
r 0.173496 0 1 tcp 1040 ------- 1 0.0 3.0 33 50
+ 0.173496 1 2 tcp 1040 ------- 1 0.0 3.0 33 50
d 0.173496 1 2 tcp 1040 ------- 1 0.0 3.0 33 50
r 0.173632 3 2 ack 40 ------- 1 3.0 0.0 17 52
+ 0.173632 2 1 ack 40 ------- 1 3.0 0.0 17 52
- 0.173632 2 1 ack 40 ------- 1 3.0 0.0 17 52
- 0.174088 1 2 tcp 1040 ------- 1 0.0 3.0 19 29
r 0.174328 0 1 tcp 1040 ------- 1 0.0 3.0 34 51
+ 0.174328 1 2 tcp 1040 ------- 1 0.0 3.0 34 51
r 0.178952 2 1 ack 40 ------- 1 3.0 0.0 17 52
+ 0.178952 1 0 ack 40 ------- 1 3.0 0.0 17 52
- 0.178952 1 0 ack 40 ------- 1 3.0 0.0 17 52
r 0.179088 1 2 tcp 1040 ------- 1 0.0 3.0 18 27
+ 0.179088 2 3 tcp 1040 ------- 1 0.0 3.0 18 27
- 0.179088 2 3 tcp 1040 ------- 1 0.0 3.0 18 27
r 0.179984 1 0 ack 40 ------- 1 3.0 0.0 17 52
+ 0.179984 0 1 tcp 1040 ------- 1 0.0 3.0 35 53
- 0.179984 0 1 tcp 1040 ------- 1 0.0 3.0 35 53
+ 0.179984 0 1 tcp 1040 ------- 1 0.0 3.0 36 54
- 0.180816 0 1 tcp 1040 ------- 1 0.0 3.0 36 54
r 0.18092 2 3 tcp 1040 ------- 1 0.0 3.0 18 27
+ 0.18092 3 2 ack 40 ------- 1 3.0 0.0 18 55
- 0.18092 3 2 ack 40 ------- 1 3.0 0.0 18 55
r 0.181816 0 1 tcp 1040 ------- 1 0.0 3.0 35 53
+ 0.181816 1 2 tcp 1040 ------- 1 0.0 3.0 35 53
d 0.181816 1 2 tcp 1040 ------- 1 0.0 3.0 35 53
r 0.181952 3 2 ack 40 ------- 1 3.0 0.0 18 55
+ 0.181952 2 1 ack 40 ------- 1 3.0 0.0 18 55
- 0.181952 2 1 ack 40 ------- 1 3.0 0.0 18 55
- 0.182408 1 2 tcp 1040 ------- 1 0.0 3.0 20 30
r 0.182648 0 1 tcp 1040 ------- 1 0.0 3.0 36 54
+ 0.182648 1 2 tcp 1040 ------- 1 0.0 3.0 36 54
r 0.187272 2 1 ack 40 ------- 1 3.0 0.0 18 55
+ 0.187272 1 0 ack 40 ------- 1 3.0 0.0 18 55
- 0.187272 1 0 ack 40 ------- 1 3.0 0.0 18 55
r 0.187408 1 2 tcp 1040 ------- 1 0.0 3.0 19 29
+ 0.187408 2 3 tcp 1040 ------- 1 0.0 3.0 19 29
- 0.187408 2 3 tcp 1040 ------- 1 0.0 3.0 19 29
r 0.188304 1 0 ack 40 ------- 1 3.0 0.0 18 55
+ 0.188304 0 1 tcp 1040 ------- 1 0.0 3.0 37 56
- 0.188304 0 1 tcp 1040 ------- 1 0.0 3.0 37 56
+ 0.188304 0 1 tcp 1040 ------- 1 0.0 3.0 38 57
- 0.189136 0 1 tcp 1040 ------- 1 0.0 3.0 38 57
r 0.18924 2 3 tcp 1040 ------- 1 0.0 3.0 19 29
+ 0.18924 3 2 ack 40 ------- 1 3.0 0.0 19 58
- 0.18924 3 2 ack 40 ------- 1 3.0 0.0 19 58
r 0.190136 0 1 tcp 1040 ------- 1 0.0 3.0 37 56
+ 0.190136 1 2 tcp 1040 ------- 1 0.0 3.0 37 56
d 0.190136 1 2 tcp 1040 ------- 1 0.0 3.0 37 56
r 0.190272 3 2 ack 40 ------- 1 3.0 0.0 19 58
+ 0.190272 2 1 ack 40 ------- 1 3.0 0.0 19 58
- 0.190272 2 1 ack 40 ------- 1 3.0 0.0 19 58
- 0.190728 1 2 tcp 1040 ------- 1 0.0 3.0 21 32
r 0.190968 0 1 tcp 1040 ------- 1 0.0 3.0 38 57
+ 0.190968 1 2 tcp 1040 ------- 1 0.0 3.0 38 57
r 0.195592 2 1 ack 40 ------- 1 3.0 0.0 19 58
+ 0.195592 1 0 ack 40 ------- 1 3.0 0.0 19 58
- 0.195592 1 0 ack 40 ------- 1 3.0 0.0 19 58
r 0.195728 1 2 tcp 1040 ------- 1 0.0 3.0 20 30
+ 0.195728 2 3 tcp 1040 ------- 1 0.0 3.0 20 30
- 0.195728 2 3 tcp 1040 ------- 1 0.0 3.0 20 30
r 0.196624 1 0 ack 40 ------- 1 3.0 0.0 19 58
+ 0.196624 0 1 tcp 1040 ------- 1 0.0 3.0 39 59
- 0.196624 0 1 tcp 1040 ------- 1 0.0 3.0 39 59
+ 0.196624 0 1 tcp 1040 ------- 1 0.0 3.0 40 60
- 0.197456 0 1 tcp 1040 ------- 1 0.0 3.0 40 60
r 0.19756 2 3 tcp 1040 ------- 1 0.0 3.0 20 30
+ 0.19756 3 2 ack 40 ------- 1 3.0 0.0 20 61
- 0.19756 3 2 ack 40 ------- 1 3.0 0.0 20 61
r 0.198456 0 1 tcp 1040 ------- 1 0.0 3.0 39 59
+ 0.198456 1 2 tcp 1040 ------- 1 0.0 3.0 39 59
d 0.198456 1 2 tcp 1040 ------- 1 0.0 3.0 39 59
r 0.198592 3 2 ack 40 ------- 1 3.0 0.0 20 61
+ 0.198592 2 1 ack 40 ------- 1 3.0 0.0 20 61
- 0.198592 2 1 ack 40 ------- 1 3.0 0.0 20 61
- 0.199048 1 2 tcp 1040 ------- 1 0.0 3.0 22 33
r 0.199288 0 1 tcp 1040 ------- 1 0.0 3.0 40 60
+ 0.199288 1 2 tcp 1040 ------- 1 0.0 3.0 40 60
r 0.203912 2 1 ack 40 ------- 1 3.0 0.0 20 61
+ 0.203912 1 0 ack 40 ------- 1 3.0 0.0 20 61
- 0.203912 1 0 ack 40 ------- 1 3.0 0.0 20 61
r 0.204048 1 2 tcp 1040 ------- 1 0.0 3.0 21 32
+ 0.204048 2 3 tcp 1040 ------- 1 0.0 3.0 21 32
- 0.204048 2 3 tcp 1040 ------- 1 0.0 3.0 21 32
r 0.204944 1 0 ack 40 ------- 1 3.0 0.0 20 61
+ 0.204944 0 1 tcp 1040 ------- 1 0.0 3.0 41 62
- 0.204944 0 1 tcp 1040 ------- 1 0.0 3.0 41 62
+ 0.204944 0 1 tcp 1040 ------- 1 0.0 3.0 42 63
- 0.205776 0 1 tcp 1040 ------- 1 0.0 3.0 42 63
r 0.20588 2 3 tcp 1040 ------- 1 0.0 3.0 21 32
+ 0.20588 3 2 ack 40 ------- 1 3.0 0.0 21 64
- 0.20588 3 2 ack 40 ------- 1 3.0 0.0 21 64
r 0.206776 0 1 tcp 1040 ------- 1 0.0 3.0 41 62
+ 0.206776 1 2 tcp 1040 ------- 1 0.0 3.0 41 62
d 0.206776 1 2 tcp 1040 ------- 1 0.0 3.0 41 62
r 0.206912 3 2 ack 40 ------- 1 3.0 0.0 21 64
+ 0.206912 2 1 ack 40 ------- 1 3.0 0.0 21 64
- 0.206912 2 1 ack 40 ------- 1 3.0 0.0 21 64
- 0.207368 1 2 tcp 1040 ------- 1 0.0 3.0 23 35
r 0.207608 0 1 tcp 1040 ------- 1 0.0 3.0 42 63
+ 0.207608 1 2 tcp 1040 ------- 1 0.0 3.0 42 63
r 0.212232 2 1 ack 40 ------- 1 3.0 0.0 21 64
+ 0.212232 1 0 ack 40 ------- 1 3.0 0.0 21 64
- 0.212232 1 0 ack 40 ------- 1 3.0 0.0 21 64
r 0.212368 1 2 tcp 1040 ------- 1 0.0 3.0 22 33
+ 0.212368 2 3 tcp 1040 ------- 1 0.0 3.0 22 33
- 0.212368 2 3 tcp 1040 ------- 1 0.0 3.0 22 33
r 0.213264 1 0 ack 40 ------- 1 3.0 0.0 21 64
+ 0.213264 0 1 tcp 1040 ------- 1 0.0 3.0 43 65
- 0.213264 0 1 tcp 1040 ------- 1 0.0 3.0 43 65
+ 0.213264 0 1 tcp 1040 ------- 1 0.0 3.0 44 66
- 0.214096 0 1 tcp 1040 ------- 1 0.0 3.0 44 66
r 0.2142 2 3 tcp 1040 ------- 1 0.0 3.0 22 33
+ 0.2142 3 2 ack 40 ------- 1 3.0 0.0 22 67
- 0.2142 3 2 ack 40 ------- 1 3.0 0.0 22 67
r 0.215096 0 1 tcp 1040 ------- 1 0.0 3.0 43 65
+ 0.215096 1 2 tcp 1040 ------- 1 0.0 3.0 43 65
d 0.215096 1 2 tcp 1040 ------- 1 0.0 3.0 43 65
r 0.215232 3 2 ack 40 ------- 1 3.0 0.0 22 67
+ 0.215232 2 1 ack 40 ------- 1 3.0 0.0 22 67
- 0.215232 2 1 ack 40 ------- 1 3.0 0.0 22 67
- 0.215688 1 2 tcp 1040 ------- 1 0.0 3.0 24 36
r 0.215928 0 1 tcp 1040 ------- 1 0.0 3.0 44 66
+ 0.215928 1 2 tcp 1040 ------- 1 0.0 3.0 44 66
r 0.220552 2 1 ack 40 ------- 1 3.0 0.0 22 67
+ 0.220552 1 0 ack 40 ------- 1 3.0 0.0 22 67
- 0.220552 1 0 ack 40 ------- 1 3.0 0.0 22 67
r 0.220688 1 2 tcp 1040 ------- 1 0.0 3.0 23 35
+ 0.220688 2 3 tcp 1040 ------- 1 0.0 3.0 23 35
- 0.220688 2 3 tcp 1040 ------- 1 0.0 3.0 23 35
r 0.221584 1 0 ack 40 ------- 1 3.0 0.0 22 67
+ 0.221584 0 1 tcp 1040 ------- 1 0.0 3.0 45 68
- 0.221584 0 1 tcp 1040 ------- 1 0.0 3.0 45 68
+ 0.221584 0 1 tcp 1040 ------- 1 0.0 3.0 46 69
- 0.222416 0 1 tcp 1040 ------- 1 0.0 3.0 46 69
r 0.22252 2 3 tcp 1040 ------- 1 0.0 3.0 23 35
+ 0.22252 3 2 ack 40 ------- 1 3.0 0.0 23 70
- 0.22252 3 2 ack 40 ------- 1 3.0 0.0 23 70
r 0.223416 0 1 tcp 1040 ------- 1 0.0 3.0 45 68
+ 0.223416 1 2 tcp 1040 ------- 1 0.0 3.0 45 68
d 0.223416 1 2 tcp 1040 ------- 1 0.0 3.0 45 68
r 0.223552 3 2 ack 40 ------- 1 3.0 0.0 23 70
+ 0.223552 2 1 ack 40 ------- 1 3.0 0.0 23 70
- 0.223552 2 1 ack 40 ------- 1 3.0 0.0 23 70
- 0.224008 1 2 tcp 1040 ------- 1 0.0 3.0 26 39
r 0.224248 0 1 tcp 1040 ------- 1 0.0 3.0 46 69
+ 0.224248 1 2 tcp 1040 ------- 1 0.0 3.0 46 69
r 0.228872 2 1 ack 40 ------- 1 3.0 0.0 23 70
+ 0.228872 1 0 ack 40 ------- 1 3.0 0.0 23 70
- 0.228872 1 0 ack 40 ------- 1 3.0 0.0 23 70
r 0.229008 1 2 tcp 1040 ------- 1 0.0 3.0 24 36
+ 0.229008 2 3 tcp 1040 ------- 1 0.0 3.0 24 36
- 0.229008 2 3 tcp 1040 ------- 1 0.0 3.0 24 36
r 0.229904 1 0 ack 40 ------- 1 3.0 0.0 23 70
+ 0.229904 0 1 tcp 1040 ------- 1 0.0 3.0 47 71
- 0.229904 0 1 tcp 1040 ------- 1 0.0 3.0 47 71
+ 0.229904 0 1 tcp 1040 ------- 1 0.0 3.0 48 72
- 0.230736 0 1 tcp 1040 ------- 1 0.0 3.0 48 72
r 0.23084 2 3 tcp 1040 ------- 1 0.0 3.0 24 36
+ 0.23084 3 2 ack 40 ------- 1 3.0 0.0 24 73
- 0.23084 3 2 ack 40 ------- 1 3.0 0.0 24 73
r 0.231736 0 1 tcp 1040 ------- 1 0.0 3.0 47 71
+ 0.231736 1 2 tcp 1040 ------- 1 0.0 3.0 47 71
d 0.231736 1 2 tcp 1040 ------- 1 0.0 3.0 47 71
r 0.231872 3 2 ack 40 ------- 1 3.0 0.0 24 73
+ 0.231872 2 1 ack 40 ------- 1 3.0 0.0 24 73
- 0.231872 2 1 ack 40 ------- 1 3.0 0.0 24 73
- 0.232328 1 2 tcp 1040 ------- 1 0.0 3.0 28 42
r 0.232568 0 1 tcp 1040 ------- 1 0.0 3.0 48 72
+ 0.232568 1 2 tcp 1040 ------- 1 0.0 3.0 48 72
r 0.237192 2 1 ack 40 ------- 1 3.0 0.0 24 73
+ 0.237192 1 0 ack 40 ------- 1 3.0 0.0 24 73
- 0.237192 1 0 ack 40 ------- 1 3.0 0.0 24 73
r 0.237328 1 2 tcp 1040 ------- 1 0.0 3.0 26 39
+ 0.237328 2 3 tcp 1040 ------- 1 0.0 3.0 26 39
- 0.237328 2 3 tcp 1040 ------- 1 0.0 3.0 26 39
r 0.238224 1 0 ack 40 ------- 1 3.0 0.0 24 73
+ 0.238224 0 1 tcp 1040 ------- 1 0.0 3.0 49 74
- 0.238224 0 1 tcp 1040 ------- 1 0.0 3.0 49 74
+ 0.238224 0 1 tcp 1040 ------- 1 0.0 3.0 50 75
- 0.239056 0 1 tcp 1040 ------- 1 0.0 3.0 50 75
r 0.23916 2 3 tcp 1040 ------- 1 0.0 3.0 26 39
+ 0.23916 3 2 ack 40 ------- 1 3.0 0.0 24 76
- 0.23916 3 2 ack 40 ------- 1 3.0 0.0 24 76
r 0.240056 0 1 tcp 1040 ------- 1 0.0 3.0 49 74
+ 0.240056 1 2 tcp 1040 ------- 1 0.0 3.0 49 74
d 0.240056 1 2 tcp 1040 ------- 1 0.0 3.0 49 74
r 0.240192 3 2 ack 40 ------- 1 3.0 0.0 24 76
+ 0.240192 2 1 ack 40 ------- 1 3.0 0.0 24 76
- 0.240192 2 1 ack 40 ------- 1 3.0 0.0 24 76
- 0.240648 1 2 tcp 1040 ------- 1 0.0 3.0 30 45
r 0.240888 0 1 tcp 1040 ------- 1 0.0 3.0 50 75
+ 0.240888 1 2 tcp 1040 ------- 1 0.0 3.0 50 75
r 0.245512 2 1 ack 40 ------- 1 3.0 0.0 24 76
+ 0.245512 1 0 ack 40 ------- 1 3.0 0.0 24 76
- 0.245512 1 0 ack 40 ------- 1 3.0 0.0 24 76
r 0.245648 1 2 tcp 1040 ------- 1 0.0 3.0 28 42
+ 0.245648 2 3 tcp 1040 ------- 1 0.0 3.0 28 42
- 0.245648 2 3 tcp 1040 ------- 1 0.0 3.0 28 42
r 0.246544 1 0 ack 40 ------- 1 3.0 0.0 24 76
+ 0.246544 0 1 tcp 1040 ------- 1 0.0 3.0 51 77
- 0.246544 0 1 tcp 1040 ------- 1 0.0 3.0 51 77
r 0.24748 2 3 tcp 1040 ------- 1 0.0 3.0 28 42
+ 0.24748 3 2 ack 40 ------- 1 3.0 0.0 24 78
- 0.24748 3 2 ack 40 ------- 1 3.0 0.0 24 78
r 0.248376 0 1 tcp 1040 ------- 1 0.0 3.0 51 77
+ 0.248376 1 2 tcp 1040 ------- 1 0.0 3.0 51 77
d 0.248376 1 2 tcp 1040 ------- 1 0.0 3.0 51 77
r 0.248512 3 2 ack 40 ------- 1 3.0 0.0 24 78
+ 0.248512 2 1 ack 40 ------- 1 3.0 0.0 24 78
- 0.248512 2 1 ack 40 ------- 1 3.0 0.0 24 78
- 0.248968 1 2 tcp 1040 ------- 1 0.0 3.0 32 48
r 0.253832 2 1 ack 40 ------- 1 3.0 0.0 24 78
+ 0.253832 1 0 ack 40 ------- 1 3.0 0.0 24 78
- 0.253832 1 0 ack 40 ------- 1 3.0 0.0 24 78
r 0.253968 1 2 tcp 1040 ------- 1 0.0 3.0 30 45
+ 0.253968 2 3 tcp 1040 ------- 1 0.0 3.0 30 45
- 0.253968 2 3 tcp 1040 ------- 1 0.0 3.0 30 45
r 0.254864 1 0 ack 40 ------- 1 3.0 0.0 24 78
+ 0.254864 0 1 tcp 1040 ------- 1 0.0 3.0 52 79
- 0.254864 0 1 tcp 1040 ------- 1 0.0 3.0 52 79
r 0.2558 2 3 tcp 1040 ------- 1 0.0 3.0 30 45
+ 0.2558 3 2 ack 40 ------- 1 3.0 0.0 24 80
- 0.2558 3 2 ack 40 ------- 1 3.0 0.0 24 80
r 0.256696 0 1 tcp 1040 ------- 1 0.0 3.0 52 79
+ 0.256696 1 2 tcp 1040 ------- 1 0.0 3.0 52 79
r 0.256832 3 2 ack 40 ------- 1 3.0 0.0 24 80
+ 0.256832 2 1 ack 40 ------- 1 3.0 0.0 24 80
- 0.256832 2 1 ack 40 ------- 1 3.0 0.0 24 80
- 0.257288 1 2 tcp 1040 ------- 1 0.0 3.0 34 51
r 0.262152 2 1 ack 40 ------- 1 3.0 0.0 24 80
+ 0.262152 1 0 ack 40 ------- 1 3.0 0.0 24 80
- 0.262152 1 0 ack 40 ------- 1 3.0 0.0 24 80
r 0.262288 1 2 tcp 1040 ------- 1 0.0 3.0 32 48
+ 0.262288 2 3 tcp 1040 ------- 1 0.0 3.0 32 48
- 0.262288 2 3 tcp 1040 ------- 1 0.0 3.0 32 48
r 0.263184 1 0 ack 40 ------- 1 3.0 0.0 24 80
+ 0.263184 0 1 tcp 1040 ---A--- 1 0.0 3.0 25 81
- 0.263184 0 1 tcp 1040 ---A--- 1 0.0 3.0 25 81
r 0.26412 2 3 tcp 1040 ------- 1 0.0 3.0 32 48
+ 0.26412 3 2 ack 40 ------- 1 3.0 0.0 24 82
- 0.26412 3 2 ack 40 ------- 1 3.0 0.0 24 82
r 0.265016 0 1 tcp 1040 ---A--- 1 0.0 3.0 25 81
+ 0.265016 1 2 tcp 1040 ---A--- 1 0.0 3.0 25 81
r 0.265152 3 2 ack 40 ------- 1 3.0 0.0 24 82
+ 0.265152 2 1 ack 40 ------- 1 3.0 0.0 24 82
- 0.265152 2 1 ack 40 ------- 1 3.0 0.0 24 82
- 0.265608 1 2 tcp 1040 ------- 1 0.0 3.0 36 54
r 0.270472 2 1 ack 40 ------- 1 3.0 0.0 24 82
+ 0.270472 1 0 ack 40 ------- 1 3.0 0.0 24 82
- 0.270472 1 0 ack 40 ------- 1 3.0 0.0 24 82
r 0.270608 1 2 tcp 1040 ------- 1 0.0 3.0 34 51
+ 0.270608 2 3 tcp 1040 ------- 1 0.0 3.0 34 51
- 0.270608 2 3 tcp 1040 ------- 1 0.0 3.0 34 51
r 0.271504 1 0 ack 40 ------- 1 3.0 0.0 24 82
r 0.27244 2 3 tcp 1040 ------- 1 0.0 3.0 34 51
+ 0.27244 3 2 ack 40 ------- 1 3.0 0.0 24 83
- 0.27244 3 2 ack 40 ------- 1 3.0 0.0 24 83